2
Properties=species:S:1:pos:R:3 energy=-17.2382389185999 pbc="F F F"
H        1.43279650       0.82783881       0.41099561
H        1.42666766       0.82091565       0.70000000
2
Properties=species:S:1:pos:R:3 energy=-25.7361257193958 pbc="F F F"
H        1.43279650       0.82783881       0.41099561
H        1.42666766       0.82091565       0.80000000
2
Properties=species:S:1:pos:R:3 energy=-29.4584322832397 pbc="F F F"
H        1.43279650       0.82783881       0.41099561
H        1.42666766       0.82091565       0.90000000
2
Properties=species:S:1:pos:R:3 energy=-31.0759207670252 pbc="F F F"
H        1.43279650       0.82783881       0.41099561
H        1.42666766       0.82091565       1.00000000
2
Properties=species:S:1:pos:R:3 energy=-31.6634096194725 pbc="F F F"
H        1.43279650       0.82783881       0.41099561
H        1.42666766       0.82091565       1.10000000
2
Properties=species:S:1:pos:R:3 energy=-31.7181404280839 pbc="F F F"
H        1.43279650       0.82783881       0.41099561
H        1.42666766       0.82091565       1.20000000
2
Properties=species:S:1:pos:R:3 energy=-31.4919568034898 pbc="F F F"
H        1.43279650       0.82783881       0.41099561
H        1.42666766       0.82091565       1.30000000
2
Properties=species:S:1:pos:R:3 energy=-31.1204887010697 pbc="F F F"
H        1.43279650       0.82783881       0.41099561
H        1.42666766       0.82091565       1.40000000
2
Properties=species:S:1:pos:R:3 energy=-30.6799527468053 pbc="F F F"
H        1.43279650       0.82783881       0.41099561
H        1.42666766       0.82091565       1.50000000
2
Properties=species:S:1:pos:R:3 energy=-30.2143458609499 pbc="F F F"
H        1.43279650       0.82783881       0.41099561
H        1.42666766       0.82091565       1.60000000
2
Properties=species:S:1:pos:R:3 energy=-29.7493808985513 pbc="F F F"
H        1.43279650       0.82783881       0.41099561
H        1.42666766       0.82091565       1.70000000
2
Properties=species:S:1:pos:R:3 energy=-29.3000267717481 pbc="F F F"
H        1.43279650       0.82783881       0.41099561
H        1.42666766       0.82091565       1.80000000
2
Properties=species:S:1:pos:R:3 energy=-28.874751744163 pbc="F F F"
H        1.43279650       0.82783881       0.41099561
H        1.42666766       0.82091565       1.90000000
2
Properties=species:S:1:pos:R:3 energy=-28.4780043489032 pbc="F F F"
H        1.43279650       0.82783881       0.41099561
H        1.42666766       0.82091565       2.00000000
2
Properties=species:S:1:pos:R:3 energy=-28.1117118710445 pbc="F F F"
H        1.43279650       0.82783881       0.41099561
H        1.42666766       0.82091565       2.10000000
2
Properties=species:S:1:pos:R:3 energy=-27.7761946691882 pbc="F F F"
H        1.43279650       0.82783881       0.41099561
H        1.42666766       0.82091565       2.20000000
2
Properties=species:S:1:pos:R:3 energy=-27.4707807302733 pbc="F F F"
H        1.43279650       0.82783881       0.41099561
H        1.42666766       0.82091565       2.30000000
2
Properties=species:S:1:pos:R:3 energy=-27.1941834502593 pbc="F F F"
H        1.43279650       0.82783881       0.41099561
H        1.42666766       0.82091565       2.40000000
2
Properties=species:S:1:pos:R:3 energy=-26.9447198560444 pbc="F F F"
H        1.43279650       0.82783881       0.41099561
H        1.42666766       0.82091565       2.50000000
2
Properties=species:S:1:pos:R:3 energy=-26.7205367350302 pbc="F F F"
H        1.43279650       0.82783881       0.41099561
H        1.42666766       0.82091565       2.60000000
2
Properties=species:S:1:pos:R:3 energy=-26.5196866823604 pbc="F F F"
H        1.43279650       0.82783881       0.41099561
H        1.42666766       0.82091565       2.70000000
2
Properties=species:S:1:pos:R:3 energy=-26.3402149434783 pbc="F F F"
H        1.43279650       0.82783881       0.41099561
H        1.42666766       0.82091565       2.80000000
2
Properties=species:S:1:pos:R:3 energy=-26.1802390267343 pbc="F F F"
H        1.43279650       0.82783881       0.41099561
H        1.42666766       0.82091565       2.90000000
2
Properties=species:S:1:pos:R:3 energy=-26.0379391211323 pbc="F F F"
H        1.43279650       0.82783881       0.41099561
H        1.42666766       0.82091565       3.00000000
2
Properties=species:S:1:pos:R:3 energy=-25.7997204619082 pbc="F F F"
H        1.43279650       0.82783881       0.41099561
H        1.42666766       0.82091565       3.20000000
2
Properties=species:S:1:pos:R:3 energy=-25.6133784939526 pbc="F F F"
H        1.43279650       0.82783881       0.41099561
H        1.42666766       0.82091565       3.40000000
2
Properties=species:S:1:pos:R:3 energy=-25.4682836619745 pbc="F F F"
H        1.43279650       0.82783881       0.41099561
H        1.42666766       0.82091565       3.60000000
2
Properties=species:S:1:pos:R:3 energy=-25.3552122379063 pbc="F F F"
H        1.43279650       0.82783881       0.41099561
H        1.42666766       0.82091565       3.80000000
2
Properties=species:S:1:pos:R:3 energy=-25.2672460051839 pbc="F F F"
H        1.43279650       0.82783881       0.41099561
H        1.42666766       0.82091565       4.00000000
2
Properties=species:S:1:pos:R:3 energy=-25.1455918454458 pbc="F F F"
H        1.43279650       0.82783881       0.41099561
H        1.42666766       0.82091565       4.40000000
2
Properties=species:S:1:pos:R:3 energy=-25.070392715095 pbc="F F F"
H        1.43279650       0.82783881       0.41099561
H        1.42666766       0.82091565       4.80000000
2
Properties=species:S:1:pos:R:3 energy=-25.0308182897274 pbc="F F F"
H        1.43279650       0.82783881       0.41099561
H        1.42666766       0.82091565       5.20000000
2
Properties=species:S:1:pos:R:3 energy=-25.0104489383237 pbc="F F F"
H        1.43279650       0.82783881       0.41099561
H        1.42666766       0.82091565       5.80000000
2
Properties=species:S:1:pos:R:3 energy=-25.0067869815448 pbc="F F F"
H        1.43279650       0.82783881       0.41099561
H        1.42666766       0.82091565       6.20000000
