7
Properties=species:S:1:pos:R:3:REF_forces:R:3 REF_energy=-4175.10511118854 free_energy=-4175.10511118854 pbc="F F F"
O        4.45988380      11.08183926       7.20725106       0.47276914       0.54793205      -1.31322958
H        4.24819753      10.82668424       8.10094364      -0.24578155      -0.29583973       0.95098103
H        3.92189088      11.81352953       6.85073796       0.00169862      -0.05440000       0.21889837
O        5.86246766       9.82595430       5.68369663      -0.36336473       0.48865454       0.45409701
H        5.20370566      10.55402246       6.51306979      -0.44390323      -0.40585649      -0.17124210
H        6.72835295       9.50320602       5.91269789       1.07699927      -0.28422591       0.40771181
H        5.67495211       9.51537146       4.79326569      -0.49841752       0.00373554      -0.54721654
7
Properties=species:S:1:pos:R:3:REF_forces:R:3 REF_energy=-4174.89437941836 free_energy=-4174.89437941836 pbc="F F F"
O        5.15104846       9.89625229       5.03280539      -0.90896241       2.74286281       1.45731421
H        4.19584658       9.89198489       5.21555047       0.04961522      -0.00332614       0.00851308
H        5.51200561       9.17195154       4.61884696       0.80435169      -3.51622126      -1.84958068
O        7.01202114      11.35093662       5.47640407       0.86531073       0.09795867       0.03130831
H        5.99734722      10.59012093       5.29032031       0.19320029       0.70098461       0.25858686
H        7.00180662      11.88072442       6.31268110       0.40273776      -0.38215791      -0.64949479
H        7.94721993      11.17671608       5.13756350      -1.40625328       0.35989922       0.74335301
7
Properties=species:S:1:pos:R:3:REF_forces:R:3 REF_energy=-4175.01562312692 free_energy=-4175.01562312692 pbc="F F F"
O        5.40711391      11.92684486       6.53594990       0.31263760      -1.84901079      -0.24512258
H        4.68930925      12.56083045       6.47768606      -0.42065217       0.69897841      -0.31692047
H        6.28665873      12.29056903       6.56804199       0.86837770       1.35262179       0.48668899
O        5.88227618       9.87871090       5.35806544      -0.92559300       0.02084456       1.71884800
H        5.60389244      11.03599641       5.80902120      -0.67545149      -0.37125600      -0.00822619
H        5.40450061       9.15262564       5.84099332       0.55386710       0.48412975      -0.68865085
H        6.25161768       9.58893945       4.52884221       0.28681426      -0.33630771      -0.94661691
7
Properties=species:S:1:pos:R:3:REF_forces:R:3 REF_energy=-4175.10097171484 free_energy=-4175.10097171484 pbc="F F F"
O        6.22147129      11.92241003       6.73749520      -1.53319071      -0.82981157       0.99405988
H        6.97046589      12.33897262       6.33208807       1.10422209       0.77768289      -0.26341759
H        6.09431106      12.13716953       7.70644406       0.23217000      -0.30167111      -1.21133123
O        5.22028788      10.19266109       5.32697048       0.33673131       0.28461431       0.34910374
H        5.66930007      11.06528684       6.07968582      -0.22650220       0.17986745       0.14611833
H        4.35710207      10.03826765       4.90139511      -0.01961248       0.25012201       0.14769691
H        5.85538122       9.51021543       5.07267019       0.10618199      -0.36080398      -0.16223003
7
Properties=species:S:1:pos:R:3:REF_forces:R:3 REF_energy=-4175.01222551787 free_energy=-4175.01222551787 pbc="F F F"
O        7.61900986      11.29137206       5.92670391      -1.13747459      -3.24053296       0.85218598
H        7.85364342      10.39281050       6.32889549      -0.02719196       1.54518937      -0.57749497
H        8.29870837      11.93022991       5.83195225       1.48685693       1.34233758      -0.10193175
O        5.20173824      11.69097733       5.46618515       1.33871382      -0.08314258       0.61520748
H        6.58213081      11.47753514       5.78744240      -0.85300117       0.47454751      -0.27653254
H        4.88836836      11.37802711       4.60756293      -0.63003710       0.14172076      -0.03194241
H        4.53713540      12.10042030       6.04924113      -0.17786593      -0.18011969      -0.47949179
7
Properties=species:S:1:pos:R:3:REF_forces:R:3 REF_energy=-4175.07750782293 free_energy=-4175.07750782293 pbc="F F F"
O        4.21631224      10.96507048       6.77481018       1.48238674      -0.77427433       0.28799734
H        4.44501111      11.01122437       7.72766102      -0.43987085       0.17300076      -0.29964315
H        3.38466989      11.37256481       6.51931133      -0.50636942       0.29950580      -0.13603005
O        5.98813700       9.83457111       5.47499781      -0.42753178       2.05166076       0.91767763
H        5.04290492      10.45312404       6.10005772       0.17555235       0.08693622      -0.14881004
H        6.90231694      10.17221368       5.31614130      -0.66243722      -0.62756591      -0.04942512
H        5.77356844       8.94726755       5.21676235       0.37827017      -1.20926330      -0.57176660
7
Properties=species:S:1:pos:R:3:REF_forces:R:3 REF_energy=-4175.00134608763 free_energy=-4175.00134608763 pbc="F F F"
O        4.70149971      11.83657890       8.11894551      -1.35093576      -1.68685012       0.67650865
H        3.96956786      11.85999267       8.80461051       1.34399316       0.72577189      -0.83875652
H        5.24310160      12.60881143       7.96936208       0.01968181       1.03741773       0.43167798
O        5.17159612       9.89200811       6.80556100       0.22902996       0.33453371      -0.58302660
H        5.02787410      10.66927033       7.50454699      -0.25985291       1.19249042       0.55042815
H        5.91926378       9.30857565       6.95479853       0.38177317      -0.86435997       0.04573876
H        4.34014234       9.49374322       6.52942638      -0.36368944      -0.73900367      -0.28257041
7
Properties=species:S:1:pos:R:3:REF_forces:R:3 REF_energy=-4174.98063518915 free_energy=-4174.98063518915 pbc="F F F"
O        4.63181228      11.25307563       7.57622260       0.57065177       0.99007819      -1.33333300
H        4.31636180      10.74520698       8.30734737      -0.71850429      -0.55017419       1.29268068
H        4.36996763      12.20370366       7.61525864       0.14899359      -0.66296392      -0.07907724
O        5.73429103       9.81387824       6.00075065      -1.44046065       1.19859940      -0.64052857
H        5.15278365      10.61688138       6.67245704      -0.00191247       0.41834875      -0.10285437
H        6.21069688       9.22032845       6.52969495       1.47845973      -1.82024189       1.48522831
H        6.08125243       9.77529818       5.10290824      -0.03722768       0.42635367      -0.62211581
7
Properties=species:S:1:pos:R:3:REF_forces:R:3 REF_energy=-4175.02982086611 free_energy=-4175.02982086611 pbc="F F F"
O        4.45573660      11.10240113       7.24668915       0.87884698      -0.20945125      -0.79671748
H        4.23777605      10.85628227       8.15637235      -0.11120387       0.00810950       0.26044783
H        3.95804289      11.85145690       6.87939418      -0.10280122       0.11126211       0.19890596
O        5.87502826       9.80578151       5.68677789      -0.37368254       0.52968501       0.47139232
H        5.26772391      10.57287604       6.58243479      -0.69808357      -0.42125897      -0.42412871
H        6.76053328       9.46892423       5.93676303      -0.27790820      -0.06938703      -0.70864472
H        5.56427959       9.62866436       4.75777379       0.68483242       0.05104063       0.99874482
7
Properties=species:S:1:pos:R:3:REF_forces:R:3 REF_energy=-4174.76716850409 free_energy=-4174.76716850409 pbc="F F F"
O        5.72662442      11.72936970       8.20994671      -4.51651349      -0.74145778       3.23449900
H        5.53352729      12.61284678       8.59702999       0.99532404      -0.25301706      -0.78642762
H        6.45396750      11.49887538       7.70555545       2.96852836       0.22359528      -1.84987140
O        5.12368323       9.78279861       9.71416747       1.31044161       0.63558072      -0.16626744
H        5.26294209      10.71110702       8.97670676       0.70230229      -0.01142443       0.06318707
H        5.92608945       9.40704304      10.20675997      -1.62737630       0.41547945      -0.71009522
H        4.25823842       9.35424957       9.83530841       0.16729348      -0.26875618       0.21497560
7
Properties=species:S:1:pos:R:3:REF_forces:R:3 REF_energy=-4175.0285888568 free_energy=-4175.0285888568 pbc="F F F"
O        7.50448475       9.85394480       5.30978928       0.30510094      -0.12565131      -0.07759377
H        7.27843755       9.31656772       6.07426624      -1.41830654      -0.15313411       0.57397039
H        8.45869361       9.74764623       5.37720570       0.97298712       0.51259519      -0.78946300
O        6.67365017      11.75636300       4.03072737       0.52297419      -0.70710845       0.42275984
H        6.96895775      10.83965679       4.67877450      -0.08226610       0.01288154      -0.16052462
H        6.02857771      11.81501152       3.31296345      -0.33930052      -0.24745477      -0.21052567
H        6.86143396      12.61555335       4.41602263       0.03881090       0.70787192       0.24137682
7
Properties=species:S:1:pos:R:3:REF_forces:R:3 REF_energy=-4175.11122413516 free_energy=-4175.11122413516 pbc="F F F"
O        5.89342810      11.22460315       8.08418563       1.15953080       0.12859200       0.79064556
H        5.27016184      11.18862743       7.36008663      -0.30584146       0.02390474      -0.84714494
H        6.82519702      11.38565166       7.77853991      -1.05095511      -0.15229896       0.09912695
O        5.32251063      10.44937682      10.31390644      -0.94750673       0.16954121      -1.35313619
H        5.53340097      10.81583992       9.32244036       0.47915255       0.26268611      -0.68052672
H        5.08246743      11.07764436      10.98302935      -0.17752362       0.77659217       1.18128399
H        5.81692451       9.69227202      10.58585925       0.84314357      -1.20901727       0.80975135
7
Properties=species:S:1:pos:R:3:REF_forces:R:3 REF_energy=-4175.14425364885 free_energy=-4175.14425364885 pbc="F F F"
O        4.78482691       5.85052690       5.81364846       0.70828372       0.22494402      -0.78823318
H        4.95869808       6.80446049       5.74901898      -0.01658175       0.02656162       0.06586166
H        4.29761251       5.61475040       6.59221678      -0.61281091      -0.05835174       1.16273670
O        5.19640921       4.19032206       4.17577928       0.20859029       0.23986051      -0.17943443
H        5.13145370       4.96140890       5.01640563      -0.68237301       0.20398870      -0.11182114
H        6.06113943       3.75970146       4.11995511       0.18403491      -0.55073731      -0.21709729
H        4.43990694       3.59795080       3.99806348       0.21085675      -0.08626581       0.06798769
7
Properties=species:S:1:pos:R:3:REF_forces:R:3 REF_energy=-4174.91163345507 free_energy=-4174.91163345507 pbc="F F F"
O        4.58284792      10.96534977       5.43803014       0.51038596      -2.99201564      -0.89712736
H        3.87965588      10.40689655       4.97129078       1.15702151       0.98613997       0.74566502
H        4.28438014      11.85021323       5.50897812      -0.80340225       1.89319917       0.04976195
O        7.10348760      10.54817731       5.56904121      -2.47783410      -0.41120208      -1.35366089
H        6.01455191      10.72090256       5.38830869      -0.10950067       0.16754561       0.98597403
H        7.53063286      10.44327679       4.70806148       1.10847537       0.07779694       0.12684191
H        7.56332227      10.76965189       6.38222557       0.61485419       0.27853604       0.34254534
7
Properties=species:S:1:pos:R:3:REF_forces:R:3 REF_energy=-4175.00168739782 free_energy=-4175.00168739782 pbc="F F F"
O        4.60536894      11.29359270       7.81118782       0.60705109       2.02782540      -0.72410777
H        4.04752875      11.28983163       8.59074331      -0.51567444      -0.48454777       0.57295660
H        4.84058928      12.24341144       7.63747454      -0.28741221      -0.75458591       0.22673207
O        5.68103197       9.84817410       6.29539151       0.12928984      -1.06280426      -0.76365910
H        5.09177383      10.55147777       6.92706909       0.11771670      -0.14311543       0.49905313
H        5.19964399       9.02674924       6.01613157       0.63509421       0.62830832      -0.07595013
H        6.48907332      10.06820419       5.76886377      -0.68606519      -0.21108035       0.26497520
7
Properties=species:S:1:pos:R:3:REF_forces:R:3 REF_energy=-4174.97173282469 free_energy=-4174.97173282469 pbc="F F F"
O        7.41713481       9.53695929       5.33928984      -0.63929126       1.56131860      -0.10089517
H        6.77480769       9.34835459       6.04268945       0.33629549      -0.77577353       0.12983602
H        7.99688555       8.81429910       5.05515054      -0.19337221      -0.28994307       0.11372425
O        6.92210096      11.66770211       4.18350065       0.03153451      -1.72614025       0.73456688
H        7.06736517      10.66621516       4.75027208       0.35784859      -0.04800355      -0.47482080
H        6.03643517      12.06532434       4.07080609       0.57854979       0.49417362      -0.16857579
H        7.77128621      12.11013986       4.01491435      -0.47156491       0.78436817      -0.23383540
7
Properties=species:S:1:pos:R:3:REF_forces:R:3 REF_energy=-4175.04809540586 free_energy=-4175.04809540586 pbc="F F F"
O        5.49141571      12.20302523       8.47575289       1.43420215       3.10634434      -1.50687772
H        6.40237972      12.47996746       8.11141606      -1.20648323      -0.89725165       0.81983637
H        4.94058256      12.99256151       8.13493259       0.17749908      -1.79039963       0.71283167
O        5.00941912       9.89727298       8.75935678      -0.42494741       0.66810964       0.49646600
H        5.26748489      11.02854126       8.54347783      -0.37242096      -0.14512738       0.10861787
H        5.28558912       9.23395630       8.12860832       0.24633497      -0.84732710      -0.35667339
H        4.91131685       9.57365268       9.67748138       0.14581539      -0.09434822      -0.27420080
7
Properties=species:S:1:pos:R:3:REF_forces:R:3 REF_energy=-4174.916059619 free_energy=-4174.916059619 pbc="F F F"
O        5.99589890       5.73376454       3.73551828      -2.90598542       2.17020200      -1.34368186
H        6.67650616       5.16683995       3.98830480       2.51579256      -1.48558842       0.62351807
H        6.17673476       6.60871649       3.33892089       0.65620934      -0.38121960       0.15026895
O        3.83229680       5.32478798       4.64537763       0.84582026      -0.88832996       0.67992410
H        4.90103836       5.54574653       3.99788881      -0.03002086      -0.23750926       0.70934313
H        3.89547454       4.59711257       5.33617644      -0.68660500       1.08987524      -0.98329314
H        2.94361411       5.62996682       4.41758592      -0.39521088      -0.26743001       0.16392076
7
Properties=species:S:1:pos:R:3:REF_forces:R:3 REF_energy=-4174.98843423861 free_energy=-4174.98843423861 pbc="F F F"
O        6.28544728       7.99441584       4.66438262      -2.24287947      -0.26407574      -1.61868344
H        7.00034815       7.51745459       5.02947236       1.78675821      -0.98841958       1.01359456
H        5.53752152       7.41566888       4.39636280       0.28828325       0.15474882       0.15846961
O        6.00356886      10.35613535       5.10641932       0.49927692      -2.23435706       0.90555553
H        6.09854112       9.04172384       4.80376427       0.37281228       1.13564532       0.66204783
H        5.49726551      10.87155927       4.50781967      -0.60506099       1.63769826      -0.90059215
H        6.69170525      10.80018215       5.62274783      -0.09919021       0.55875998      -0.22039194
7
Properties=species:S:1:pos:R:3:REF_forces:R:3 REF_energy=-4175.18735173374 free_energy=-4175.18735173374 pbc="F F F"
O        4.20203610      10.89677699       6.64096806       0.14124507      -0.27714050       0.16735239
H        4.18832185      11.44179720       7.44813318       0.02176731       0.02432200      -0.04632523
H        3.42242036      11.02424058       6.08142655      -0.29297684       0.21060939       0.00931552
O        6.01433536       9.87040527       5.45724429       0.06817358      -0.22474723       0.28647238
H        5.15071737      10.40197846       6.12600236       0.04212757       0.32977606      -0.34027375
H        6.55843387      10.30445396       4.77572321      -0.07337299       0.14589814       0.02138104
H        5.82274672       8.95531785       5.19470914       0.09303631      -0.20871786      -0.09792235
7
Properties=species:S:1:pos:R:3:REF_forces:R:3 REF_energy=-4174.92935703135 free_energy=-4174.92935703135 pbc="F F F"
O        5.24432502       9.68795524       4.98869274      -0.83303154      -1.87805640      -1.24301148
H        4.56360558       9.51773834       5.67440382       0.30656204       0.24617562      -0.03113745
H        5.10574130       8.91012134       4.32970188       0.60746365       1.78931550       1.16298099
O        6.89867021      11.39795062       5.58209841      -0.30054101      -2.88794347       0.47450702
H        6.23034547      10.65961613       5.15593679      -0.23868154      -0.64909725       0.35335326
H        6.39750421      12.17161547       5.68591036      -1.13097502       2.79428666       0.29007145
H        7.66602337      11.50398568       5.04328630       1.58920342       0.58531933      -1.00676379
7
Properties=species:S:1:pos:R:3:REF_forces:R:3 REF_energy=-4174.86412487991 free_energy=-4174.86412487991 pbc="F F F"
O        7.70593639      11.13369414       5.60049144      -0.78486341      -1.87210067      -1.16229718
H        8.02298957      10.19343065       5.67397179      -0.38702448       0.91564837      -0.21289172
H        8.24932484      11.63318276       6.17102958       1.40602954       1.29186095       1.32058892
O        5.39571545      11.67180764       4.97002830      -0.48091660       0.86132939      -1.05546835
H        6.41287571      11.67014167       5.14084465       0.98250370      -0.64490341       0.64448383
H        5.09846812      10.77248268       4.86490466      -0.29318419      -1.49081088      -0.56982256
H        4.86518012      12.00187150       5.69416433      -0.44254456       0.93897624       1.03540707
7
Properties=species:S:1:pos:R:3:REF_forces:R:3 REF_energy=-4174.87629810423 free_energy=-4174.87629810423 pbc="F F F"
O        7.70998903      11.13410617       5.60619651      -0.38418160      -0.39189104      -0.47493822
H        8.01809823      10.20192372       5.66127638      -0.08670861       0.55009364      -0.02199444
H        8.24717951      11.67751832       6.18520881       0.60694582       0.24874895       0.41321435
O        5.38603192      11.67196560       4.97797413       0.74253355       2.28088902      -0.96204058
H        6.42014442      11.67555594       5.14589253       0.64661578      -0.70363299       0.54922605
H        5.10790002      10.79552539       4.85382231      -0.86631468      -2.84782546      -0.66928352
H        4.87085996      12.02208407       5.69752421      -0.65889025       0.86361788       1.16581636
7
Properties=species:S:1:pos:R:3:REF_forces:R:3 REF_energy=-4174.85867573914 free_energy=-4174.85867573914 pbc="F F F"
O        7.70742927      11.13418072       5.60245436      -0.74053711      -1.64621359      -1.06838419
H        8.02199365      10.19355686       5.67016476      -0.32730311       0.92596387      -0.15527743
H        8.24600483      11.64593689       6.17370734       1.26909285       1.07894722       1.16034527
O        5.39252608      11.67169559       4.97266239      -0.00930090       1.47047288      -1.05048189
H        6.41436974      11.67260530       5.14243100       0.88975272      -0.66207348       0.61246396
H        5.10260362      10.78310894       4.86254313      -0.53417785      -2.11723979      -0.62817085
H        4.86727074      12.00716728       5.69451150      -0.54752659       0.95014289       1.12950513
7
Properties=species:S:1:pos:R:3:REF_forces:R:3 REF_energy=-4174.93880364647 free_energy=-4174.93880364647 pbc="F F F"
O        4.25681909       6.10038363       4.81614166       1.46359099       1.15243011      -0.13265879
H        3.39358247       6.29942141       4.50697343      -2.13683049       0.63105483      -0.76722820
H        4.27461418       6.15535490       5.76511719      -0.01504772       0.45551789       1.60603153
O        4.89319812       3.81746742       4.38427460      -0.32087780       1.77941620       0.80693197
H        4.52385403       5.14671131       4.57637742       0.57386782      -1.90200842      -0.58918112
H        4.81052173       3.36766386       3.56402980       0.03780483      -1.18073979      -1.35414912
H        5.21922556       3.27706971       5.09623940       0.39749237      -0.93567084       0.43025373
7
Properties=species:S:1:pos:R:3:REF_forces:R:3 REF_energy=-4174.86331048655 free_energy=-4174.86331048655 pbc="F F F"
O        7.70867229      11.13429181       5.60433695      -0.58606194      -1.13149591      -0.81727779
H        8.01963297      10.19623994       5.66587109      -0.22448166       0.80593533      -0.08872069
H        8.24527806      11.66100746       6.17876664       0.97904542       0.70781540       0.83286511
O        5.38924839      11.67166027       4.97522821       0.40860362       1.98344977      -1.01167958
H        6.41668258      11.67428358       5.14406050       0.77977521      -0.68140848       0.58057217
H        5.10573243      10.79115710       4.85898386      -0.73795851      -2.60950986      -0.66741947
H        4.86924074      12.01397597       5.69561670      -0.61892212       0.92521375       1.17166024
7
Properties=species:S:1:pos:R:3:REF_forces:R:3 REF_energy=-4174.89093008132 free_energy=-4174.89093008132 pbc="F F F"
O        4.25178136       6.10119954       4.81263298       0.16190816       1.78922635      -1.86148186
H        3.37622704       6.31528748       4.48225535      -0.96800262       0.35286845      -0.39333561
H        4.25655703       6.16258750       5.73818191       0.00292582       0.51287471       3.03777381
O        4.89266495       3.81515807       4.38182012      -0.54670415       1.90573078       0.09370477
H        4.51888968       5.16709990       4.56705505       0.69581063      -2.33174026      -0.63689598
H        4.79605980       3.36522485       3.55655940       0.06078522      -1.01636381      -1.03916560
H        5.23228791       3.27521364       5.07597470       0.59327694      -1.21259621       0.79940046
7
Properties=species:S:1:pos:R:3:REF_forces:R:3 REF_energy=-4174.8873930206 free_energy=-4174.8873930206 pbc="F F F"
O        4.25556815       6.10034672       4.81524520       1.22734243       1.40965370      -0.70524213
H        3.39203524       6.30257658       4.50217922      -2.00517344       0.60637244      -0.75194347
H        4.26916707       6.15606801       5.75372450       0.00861464       0.49247114       2.23777367
O        4.89307386       3.81651431       4.38350719      -0.42185618       2.09575945       0.77353134
H        4.52017452       5.15690440       4.57627090       0.65628735      -2.16662145      -0.65999739
H        4.80729245       3.37009967       3.56649949       0.01357231      -1.30675437      -1.57299634
H        5.22212492       3.27924360       5.08841035       0.52121290      -1.13088092       0.67887433
7
Properties=species:S:1:pos:R:3:REF_forces:R:3 REF_energy=-4174.85772506597 free_energy=-4174.85772506597 pbc="F F F"
O        4.25303304       6.10080553       4.81358700       0.55129661       1.73182952      -1.67995206
H        3.38322683       6.31042882       4.48979961      -1.40158900       0.46633414      -0.55939685
H        4.26021137       6.15995253       5.73908956       0.01806345       0.52709410       3.05795207
O        4.89269485       3.81545462       4.38233773      -0.54934654       2.15935245       0.36444393
H        4.51728625       5.16707640       4.57095644       0.72357697      -2.39040987      -0.68167500
H        4.79999498       3.36883018       3.56238635       0.02657303      -1.20846716      -1.38455653
H        5.22847643       3.27879252       5.07818004       0.63142548      -1.28573318       0.88318444
7
Properties=species:S:1:pos:R:3:REF_forces:R:3 REF_energy=-4174.85780305837 free_energy=-4174.85780305837 pbc="F F F"
O        4.25435295       6.10052649       4.81445771       0.90455820       1.60060942      -1.27362458
H        3.38837934       6.30624177       4.49641081      -1.74242276       0.54931189      -0.67579742
H        4.26449580       6.15767223       5.74456013       0.01981631       0.51839904       2.76519843
O        4.89284635       3.81585085       4.38287614      -0.50210782       2.22970866       0.61761632
H        4.51771067       5.16343390       4.57411400       0.70775715      -2.32763352      -0.68738089
H        4.80347356       3.37062705       3.56592703       0.00871461      -1.31671192      -1.58333398
H        5.22517088       3.27996513       5.08233650       0.60368430      -1.25368358       0.83732211
7
Properties=species:S:1:pos:R:3:REF_forces:R:3 REF_energy=-4174.77053971833 free_energy=-4174.77053971833 pbc="F F F"
O        4.65362761      11.35972982       5.64243160      -1.56657895       2.19809972       3.27769461
H        3.86652859      11.22052908       5.15356708      -1.41379964      -0.68055676      -1.85126921
H        4.39031020      11.44526419       6.60466553       0.71909448      -0.08872286      -0.73852336
O        6.99338429      10.26428285       5.51736518      -0.77857512       1.17589706      -0.20539508
H        5.53369672      11.00489129       5.46543201       2.62317265      -1.85692724      -0.53823572
H        7.64958564      10.65563909       4.92362785       0.29808334       0.04977103      -0.10137218
H        7.27591697       9.36380013       5.67356968       0.11860323      -0.79756094       0.15710093
7
Properties=species:S:1:pos:R:3:REF_forces:R:3 REF_energy=-4174.67644315725 free_energy=-4174.67644315725 pbc="F F F"
O        5.51903937      12.14518142       8.46069610       2.19883346      -2.99678793       2.11533527
H        6.50466463      11.96253678       8.40308430      -1.29523349       1.50050672      -0.54858392
H        5.00507861      12.81302027       8.08443253      -0.71379190       2.51148455      -1.59658869
O        5.02456750       9.92046018       8.88154553      -0.59329343       0.76910842      -0.52042152
H        5.06577789      11.14166749       8.74570891       0.39994920      -0.07080224      -0.49888841
H        5.51868583       9.30970965       8.33639123       0.32240848      -0.70978437      -0.30565609
H        4.78087683       9.58353465       9.72776022      -0.31887232      -1.00372515       1.35480336
7
Properties=species:S:1:pos:R:3:REF_forces:R:3 REF_energy=-4174.73017366163 free_energy=-4174.73017366163 pbc="F F F"
O        4.86196196      11.67973217       6.12160285      -1.46809616      -0.39533540      -1.17575314
H        3.96346112      12.00510437       5.78056734       1.57478423      -0.18087351       0.70462403
H        5.35964493      12.11627493       6.81904222      -0.16384402       0.80476938       0.57852917
O        6.62344728      10.03523134       5.36006595       0.26674446      -0.75076828      -0.21189674
H        5.46631545      11.04326901       5.57923352       0.39041901      -0.40976107       0.07059525
H        7.54301736       9.89719559       5.63568480       0.48338691       1.10005243       0.46931944
H        6.51843867       9.12134745       5.04873041      -1.08339444      -0.16808355      -0.43541801
7
Properties=species:S:1:pos:R:3:REF_forces:R:3 REF_energy=-4174.72489078417 free_energy=-4174.72489078417 pbc="F F F"
O        4.86485414      11.68550572       6.12232087      -0.63814004      -0.29810168      -0.57649643
H        3.96989950      12.00723014       5.81039203       1.12988038      -0.09878491       0.44467680
H        5.36356469      12.11632059       6.83468120      -0.40723281       0.56816151       0.26590312
O        6.61708419      10.03231592       5.36125369      -0.22258153       0.33889217      -0.03141960
H        5.47631066      11.03294537       5.59672070       0.27806731      -0.36198023       0.02920595
H        7.52426278       9.87525190       5.62006777       1.20149059       1.07762504       0.74771251
H        6.50418270       9.15025659       5.02894998      -1.34148390      -1.22581189      -0.87958234
7
Properties=species:S:1:pos:R:3:REF_forces:R:3 REF_energy=-4174.72660483954 free_energy=-4174.72660483954 pbc="F F F"
O        4.86349721      11.68261590       6.12197635      -1.12137864      -0.31877232      -0.89531813
H        3.96500429      12.00665796       5.79466246       1.42483455      -0.16315157       0.59934688
H        5.36208514      12.11592257       6.82697836      -0.29181019       0.68365750       0.41841645
O        6.62021747      10.03381559       5.36067740       0.01062873      -0.20961144      -0.13645210
H        5.47100835      11.03824479       5.58781349       0.33375714      -0.38597565       0.04867944
H        7.53303103       9.88518404       5.62753901       0.86751880       1.10256160       0.62168701
H        6.51251152       9.13590639       5.03935423      -1.22355038      -0.70870811      -0.65635956
7