7
Properties=species:S:1:pos:R:3 ipi_comment="Step:           0  Bead:       0 positions{ase}  cell{ase}" pbc="F F F"
O       -0.24525292       0.92704947       0.70060630
H        0.50572486       1.32109162       1.06381283
H       -1.11256270       1.27455707       0.89327293
O        0.24664311      -0.93881000      -0.68037431
H       -0.04364253       0.07101824       0.05101683
H        1.06001929      -1.02699918      -1.19234993
H       -0.43160411      -1.45300416      -1.13687519
7
Properties=species:S:1:pos:R:3 ipi_comment="Step:          20  Bead:       0 positions{ase}  cell{ase}" pbc="F F F"
O       -0.25539570       0.94913721       0.71631600
H        0.48080336       1.35753314       1.16402626
H       -1.07132555       1.17886551       1.12005510
O        0.25832571      -0.94634916      -0.71285865
H       -0.09891082       0.00720215      -0.06872065
H        1.06165222      -1.04905874      -1.22419772
H       -0.41872450      -1.53879378      -1.04603808
7
Properties=species:S:1:pos:R:3 ipi_comment="Step:          40  Bead:       0 positions{ase}  cell{ase}" pbc="F F F"
O       -0.26375743       0.96483279       0.72461847
H        0.39930909       1.37966061       1.31908732
H       -1.09336830       0.98850375       1.22152138
O        0.25644633      -0.94166664      -0.74816179
H        0.09466794      -0.10042898      -0.02685757
H        1.10034532      -0.98012509      -1.21666287
H       -0.38491230      -1.65530383      -0.92340801
7
Properties=species:S:1:pos:R:3 ipi_comment="Step:          60  Bead:       0 positions{ase}  cell{ase}" pbc="F F F"
O       -0.28784345       0.96632434       0.72185000
H        0.38158004       1.34339348       1.39764209
H       -1.14260167       0.69893830       1.15041618
O        0.28118992      -0.92256216      -0.76245542
H        0.02257744       0.13006065       0.14396107
H        1.07673008      -1.08912454      -1.26936544
H       -0.23268099      -1.77786216      -0.77816369
7
Properties=species:S:1:pos:R:3 ipi_comment="Step:          80  Bead:       0 positions{ase}  cell{ase}" pbc="F F F"
O       -0.31773457       0.96094208       0.71288205
H        0.35293512       1.21741528       1.46724833
H       -1.13452907       0.65281791       1.22108200
O        0.29737788      -0.90245062      -0.76411631
H        0.11392285       0.05825484      -0.05917093
H        1.13001084      -1.06814490      -1.24916384
H       -0.13923787      -1.78872072      -0.56680402
7
Properties=species:S:1:pos:R:3 ipi_comment="Step:         100  Bead:       0 positions{ase}  cell{ase}" pbc="F F F"
O       -0.33324614       0.94421520       0.69841467
H        0.43105158       1.06743195       1.41130078
H       -1.16738245       0.67846648       1.21023090
O        0.30090910      -0.88423875      -0.76867276
H        0.03994077       0.00143571      -0.05428440
H        1.24983202      -0.92385656      -1.06999751
H       -0.04018776      -1.77542505      -0.38211158
7
Properties=species:S:1:pos:R:3 ipi_comment="Step:         120  Bead:       0 positions{ase}  cell{ase}" pbc="F F F"
O       -0.34570303       0.95000424       0.69981371
H        0.44602524       1.05620816       1.39250646
H       -1.22828777       0.86544845       1.20364515
O        0.30977318      -0.90250158      -0.77519450
H       -0.16239411       0.10376398       0.02757865
H        1.31267777      -0.88024740      -0.90031943
H        0.20225819      -1.89913632      -0.52696513
7
Properties=species:S:1:pos:R:3 ipi_comment="Step:         140  Bead:       0 positions{ase}  cell{ase}" pbc="F F F"
O       -0.34939972       0.96671975       0.69967823
H        0.35203859       1.11714440       1.43866877
H       -1.28689466       1.07397252       1.11382752
O        0.32705886      -0.92867318      -0.76186615
H       -0.09513450      -0.21808641      -0.00693067
H        1.27174670      -0.67153497      -0.88624938
H        0.11283850      -1.90537128      -0.67226793
7
Properties=species:S:1:pos:R:3 ipi_comment="Step:         160  Bead:       0 positions{ase}  cell{ase}" pbc="F F F"
O       -0.35983193       0.96946265       0.68648403
H        0.19353492       1.18923217       1.50388394
H       -1.30724769       1.23856582       0.95147968
O        0.33861527      -0.93629709      -0.74025944
H       -0.07884939      -0.24521602       0.03347395
H        1.28906264      -0.78993455      -0.90899268
H        0.24025068      -1.91905186      -0.72632016
7
Properties=species:S:1:pos:R:3 ipi_comment="Step:         180  Bead:       0 positions{ase}  cell{ase}" pbc="F F F"
O       -0.35992555       0.95335001       0.67919396
H        0.07085071       1.12561550       1.54622682
H       -1.28642704       1.33897112       0.63029610
O        0.35499315      -0.94068217      -0.72111224
H       -0.09154635      -0.04991621      -0.01256617
H        1.25220520      -0.75032400      -0.99039130
H        0.13320453      -1.86541059      -0.50823750
7
Properties=species:S:1:pos:R:3 ipi_comment="Step:         200  Bead:       0 positions{ase}  cell{ase}" pbc="F F F"
O       -0.36365107       0.91275377       0.64146554
H       -0.13261828       1.00884303       1.55231995
H       -1.19029752       1.42950125       0.43424672
O        0.35099163      -0.89678950      -0.68624309
H        0.09201265       0.04629663      -0.04513820
H        1.24921168      -1.00643441      -1.00153287
H        0.18262238      -1.73159158      -0.22918514
7
Properties=species:S:1:pos:R:3 ipi_comment="Step:         220  Bead:       0 positions{ase}  cell{ase}" pbc="F F F"
O       -0.36122643       0.90644995       0.63252297
H       -0.38192877       0.92642246       1.55527327
H       -1.08573504       1.42465552       0.26044349
O        0.35864303      -0.89261782      -0.66950141
H        0.17314839       0.02291242      -0.08336220
H        1.24675356      -0.98528308      -1.03760178
H        0.08876554      -1.60825093      -0.10783011
7
Properties=species:S:1:pos:R:3 ipi_comment="Step:         240  Bead:       0 positions{ase}  cell{ase}" pbc="F F F"
O       -0.36541897       0.94865870       0.63352224
H       -0.61098475       0.88218080       1.51557183
H       -1.00513446       1.43378284       0.14742789
O        0.36522418      -0.92612618      -0.67133412
H        0.10149588       0.05552830       0.09581225
H        1.28935137      -1.00446611      -0.96080521
H        0.22836353      -1.72466234      -0.19785567
7
Properties=species:S:1:pos:R:3 ipi_comment="Step:         260  Bead:       0 positions{ase}  cell{ase}" pbc="F F F"
O       -0.36478853       1.00923949       0.65313582
H       -0.78726593       0.84746406       1.47929384
H       -0.98656305       1.46346079       0.14878205
O        0.38300163      -0.98414937      -0.68015351
H       -0.04596018      -0.03309054       0.05776862
H        1.31742719      -0.83856721      -0.91807269
H        0.21328318      -1.83749800      -0.33894632
7
Properties=species:S:1:pos:R:3 ipi_comment="Step:         280  Bead:       0 positions{ase}  cell{ase}" pbc="F F F"
O       -0.37275016       1.03939002       0.65984458
H       -0.84518018       0.74018717       1.45499254
H       -0.99566624       1.51420160       0.15494380
O        0.38909624      -0.99649820      -0.67070247
H       -0.03984819      -0.14303145      -0.05596726
H        1.30865326      -0.85191642      -0.89971552
H        0.31259602      -1.94022059      -0.48191692
7
Properties=species:S:1:pos:R:3 ipi_comment="Step:         300  Bead:       0 positions{ase}  cell{ase}" pbc="F F F"
O       -0.38559712       0.99870611       0.64299616
H       -0.81436940       0.78780996       1.50660562
H       -0.94801787       1.56840898       0.15545230
O        0.40261973      -0.97302819      -0.66943038
H       -0.04343867      -0.04966867       0.02126277
H        1.31733617      -0.81607802      -0.89100604
H        0.21830654      -1.89803266      -0.37275007
7
Properties=species:S:1:pos:R:3 ipi_comment="Step:         320  Bead:       0 positions{ase}  cell{ase}" pbc="F F F"
O       -0.39384701       0.93890635       0.63084150
H       -0.81197541       0.83682636       1.53133053
H       -0.81050139       1.64830407       0.13092367
O        0.40063459      -0.91983322      -0.66666610
H       -0.05635469       0.04721900       0.03732324
H        1.33807295      -0.99190804      -0.85725509
H        0.23302591      -1.84317037      -0.27371337
7
Properties=species:S:1:pos:R:3 ipi_comment="Step:         340  Bead:       0 positions{ase}  cell{ase}" pbc="F F F"
O       -0.40984882       0.90531539       0.63703311
H       -0.87043578       0.85844893       1.49690407
H       -0.64030539       1.77507433       0.17641007
O        0.40850406      -0.90219395      -0.66117818
H        0.12963996      -0.06604252       0.00268508
H        1.32487394      -0.82710508      -0.98858729
H        0.07757130      -1.78991912      -0.30418073
7
Properties=species:S:1:pos:R:3 ipi_comment="Step:         360  Bead:       0 positions{ase}  cell{ase}" pbc="F F F"
O       -0.42868628       0.91155084       0.65801454
H       -0.86635351       0.97716118       1.51837027
H       -0.34609755       1.83030517       0.21545196
O        0.40833143      -0.90896085      -0.67475406
H        0.03518709      -0.04106883       0.09747613
H        1.32890959      -0.94714701      -1.08444966
H        0.17142696      -1.86035863      -0.48115863
7
Properties=species:S:1:pos:R:3 ipi_comment="Step:         380  Bead:       0 positions{ase}  cell{ase}" pbc="F F F"
O       -0.43092892       0.95268687       0.68572023
H       -0.73950620       1.00024244       1.59873822
H       -0.09485737       1.86345317       0.35873075
O        0.39712073      -0.95949654      -0.71015983
H       -0.08347883       0.02019097       0.10106091
H        1.31961661      -0.87180500      -1.11971301
H        0.13483020      -1.90399815      -0.55091074
7
Properties=species:S:1:pos:R:3 ipi_comment="Step:         400  Bead:       0 positions{ase}  cell{ase}" pbc="F F F"
O       -0.44078195       0.98462790       0.68467359
H       -0.53715701       0.73494286       1.62620558
H        0.02732279       1.86101343       0.58759406
O        0.38123040      -0.97439718      -0.72838315
H       -0.02684277       0.11730815       0.06790701
H        1.33343945      -0.97812770      -1.04179820
H        0.14844124      -1.89751876      -0.54614929
7
Properties=species:S:1:pos:R:3 ipi_comment="Step:         420  Bead:       0 positions{ase}  cell{ase}" pbc="F F F"
O       -0.45378757       0.96410571       0.67298508
H       -0.40011278       0.49707207       1.55383764
H        0.18978038       1.70148750       0.78692122
O        0.37989676      -0.93640854      -0.72660786
H        0.01341069       0.22310108      -0.03517628
H        1.32344098      -1.06291372      -0.97110383
H        0.04627744      -1.79835683      -0.48337670
7
Properties=species:S:1:pos:R:3 ipi_comment="Step:         440  Bead:       0 positions{ase}  cell{ase}" pbc="F F F"
O       -0.42339489       0.93476607       0.66494518
H       -0.52210599       0.41879711       1.49497386
H        0.31618804       1.52802789       0.79733603
O        0.36560734      -0.89002233      -0.71697099
H       -0.11805218       0.08373507      -0.11028308
H        1.28147667      -1.06010470      -0.92417515
H       -0.04030117      -1.68062887      -0.43209665
7
Properties=species:S:1:pos:R:3 ipi_comment="Step:         460  Bead:       0 positions{ase}  cell{ase}" pbc="F F F"
O       -0.39009993       0.91320393       0.65562368
H       -0.70251315       0.69311357       1.57119517
H        0.34342790       1.50395857       0.80729234
O        0.33266533      -0.88243584      -0.71934456
H        0.04299222       0.05125455       0.06305994
H        1.24695112      -0.98105408      -0.84147783
H       -0.01925489      -1.75562440      -0.58869026
7
Properties=species:S:1:pos:R:3 ipi_comment="Step:         480  Bead:       0 positions{ase}  cell{ase}" pbc="F F F"
O       -0.34198262       0.91690034       0.69711416
H       -0.89851342       0.87209193       1.49050400
H        0.27487787       1.66800489       0.74698892
O        0.31421131      -0.89732896      -0.74162536
H       -0.09785692      -0.13928443       0.15358155
H        1.21697253      -0.92154108      -0.91318816
H       -0.05469317      -1.78990861      -0.77140338
7
Properties=species:S:1:pos:R:3 ipi_comment="Step:         500  Bead:       0 positions{ase}  cell{ase}" pbc="F F F"
O       -0.29675725       0.91778157       0.77592296
H       -0.96941900       1.00824125       1.43350572
H        0.18190607       1.78207228       0.72152783
O        0.28406449      -0.91911967      -0.78126860
H       -0.03429938      -0.05879778      -0.14854862
H        1.21087592      -0.94699036      -0.98346579
H       -0.18760379      -1.76328691      -0.93817303
7
Properties=species:S:1:pos:R:3 ipi_comment="Step:         520  Bead:       0 positions{ase}  cell{ase}" pbc="F F F"
O       -0.25225287       0.90770305       0.83973250
H       -1.08501014       0.96671358       1.29967616
H        0.09333176       1.82165493       0.71205953
O        0.26493197      -0.90441548      -0.83108635
H       -0.03319223      -0.10318590      -0.10549078
H        1.21100767      -1.09853759      -1.12664022
H       -0.38738004      -1.63882526      -0.91683655
7
Properties=species:S:1:pos:R:3 ipi_comment="Step:         540  Bead:       0 positions{ase}  cell{ase}" pbc="F F F"
O       -0.21374951       0.87663581       0.87618925
H       -1.17198405       0.93162697       1.09819425
H        0.03583460       1.79560876       0.67274633
O        0.22752916      -0.85768591      -0.86558947
H        0.22879855      -0.07369552       0.05137389
H        1.10432851      -1.33980182      -1.14695957
H       -0.41568860      -1.61451155      -0.84359476
7
Properties=species:S:1:pos:R:3 ipi_comment="Step:         560  Bead:       0 positions{ase}  cell{ase}" pbc="F F F"
O       -0.17492864       0.83365232       0.88787761
H       -1.18678121       0.81259706       0.85720530
H        0.06539985       1.70129288       0.56971075
O        0.20022173      -0.82258865      -0.87700958
H        0.05319960       0.02657409      -0.02395536
H        1.15980620      -1.25226256      -0.92874268
H       -0.49307695      -1.46380402      -0.64671555
7
Properties=species:S:1:pos:R:3 ipi_comment="Step:         580  Bead:       0 positions{ase}  cell{ase}" pbc="F F F"
O       -0.15397798       0.80014092       0.85703605
H       -1.17459113       0.91709749       0.92921412
H        0.12211084       1.69263185       0.63462586
O        0.16748612      -0.79009584      -0.86034280
H        0.05831208       0.05976601      -0.03002683
H        1.12606467      -1.21360174      -0.69759005
H       -0.34629814      -1.61532915      -0.78373830
7
Properties=species:S:1:pos:R:3 ipi_comment="Step:         600  Bead:       0 positions{ase}  cell{ase}" pbc="F F F"
O       -0.17262820       0.83206525       0.83172023
H       -1.06859873       0.98119093       1.26907429
H        0.38274274       1.62459996       0.80717565
O        0.17446746      -0.82868907      -0.85302991
H       -0.18282617      -0.05174388      -0.03112117
H        1.20217657      -0.97943909      -0.73090496
H       -0.36268721      -1.62819459      -0.97599597
7
Properties=species:S:1:pos:R:3 ipi_comment="Step:         620  Bead:       0 positions{ase}  cell{ase}" pbc="F F F"
O       -0.21533438       0.88863342       0.82810927
H       -0.82161386       1.15639608       1.55620898
H        0.56290369       1.50151054       0.89430573
O        0.18041889      -0.86967929      -0.85177707
H       -0.09997844      -0.15318376      -0.06549953
H        1.18033058      -1.09462460      -0.91808118
H       -0.26746252      -1.71093843      -1.09127801
7
Properties=species:S:1:pos:R:3 ipi_comment="Step:         640  Bead:       0 positions{ase}  cell{ase}" pbc="F F F"
O       -0.23422778       0.93489831       0.81260922
H       -0.74775342       1.09158073       1.62765249
H        0.66423883       1.36801548       0.90058472
O        0.19977935      -0.90186131      -0.85466589
H       -0.06542450      -0.23989883       0.03958039
H        1.16113265      -1.10275255      -0.97678827
H       -0.46542729      -1.64130867      -0.92350470
7
Properties=species:S:1:pos:R:3 ipi_comment="Step:         660  Bead:       0 positions{ase}  cell{ase}" pbc="F F F"
O       -0.22185159       0.93697524       0.76890667
H       -0.77080083       0.84906059       1.57995909
H        0.56693605       1.48471242       1.03459415
O        0.19077413      -0.89321968      -0.81981772
H        0.06180472      -0.07175805      -0.04784090
H        1.04929409      -1.25695427      -0.98147374
H       -0.41397189      -1.69954974      -0.77717703
7
Properties=species:S:1:pos:R:3 ipi_comment="Step:         680  Bead:       0 positions{ase}  cell{ase}" pbc="F F F"
O       -0.19647580       0.94592274       0.70544498
H       -0.74081408       0.50114852       1.38111385
H        0.41499120       1.62331367       1.04505895
O        0.17689909      -0.90967947      -0.76803435
H        0.09286340       0.14783941       0.07096293
H        1.01661192      -1.23102281      -0.93943765
H       -0.47293042      -1.61653274      -0.56427804
7
Properties=species:S:1:pos:R:3 ipi_comment="Step:         700  Bead:       0 positions{ase}  cell{ase}" pbc="F F F"
O       -0.19861982       0.96552775       0.66315630
H       -0.67377126       0.61060742       1.45900355
H        0.36178602       1.67572474       1.02377929
O        0.17360214      -0.92648982      -0.72162624
H        0.17941158       0.07198839      -0.17931283
H        0.97540354      -1.37457204      -0.92064089
H       -0.44574867      -1.60335922      -0.45479268
7
Properties=species:S:1:pos:R:3 ipi_comment="Step:         720  Bead:       0 positions{ase}  cell{ase}" pbc="F F F"
O       -0.19491099       1.01272489       0.65045566
H       -0.71500036       0.78407971       1.45127973
H        0.42909233       1.72914283       0.79759045
O        0.17521896      -0.98463453      -0.70511243
H        0.10068425      -0.00308239      -0.01856809
H        1.00444437      -1.39067028      -0.93246790
H       -0.50666839      -1.56532052      -0.43032054
7
Properties=species:S:1:pos:R:3 ipi_comment="Step:         740  Bead:       0 positions{ase}  cell{ase}" pbc="F F F"
O       -0.21382240       1.04926872       0.62925174
H       -0.64792299       1.09872814       1.50168689
H        0.49032774       1.69494531       0.61938164
O        0.17266443      -1.02617068      -0.68487299
H        0.04961500       0.09044267       0.14279049
H        1.06881620      -1.41443301      -0.82093389
H       -0.30757566      -1.83629557      -0.56010325
7
Properties=species:S:1:pos:R:3 ipi_comment="Step:         760  Bead:       0 positions{ase}  cell{ase}" pbc="F F F"
O       -0.22936609       1.08621158       0.59727005
H       -0.56961750       1.13518663       1.50591992
H        0.55027594       1.62409907       0.43525802
O        0.18779871      -1.06570244      -0.64406626
H       -0.14993243      -0.01848079       0.14809699
H        1.18080841      -1.20515786      -0.66677837
H       -0.35177601      -1.86116833      -0.67974591
7
Properties=species:S:1:pos:R:3 ipi_comment="Step:         780  Bead:       0 positions{ase}  cell{ase}" pbc="F F F"
O       -0.24852606       1.05687847       0.54977805
H       -0.44828683       1.12801345       1.49531198
H        0.49809459       1.67552294       0.46466009
O        0.19676830      -1.03086371      -0.59270470
H       -0.07598064       0.04411479      -0.04742505
H        1.16396858      -1.37734173      -0.57574506
H       -0.31629534      -1.88321613      -0.65546903
7
Properties=species:S:1:pos:R:3 ipi_comment="Step:         800  Bead:       0 positions{ase}  cell{ase}" pbc="F F F"
O       -0.24730215       1.05069040       0.49159612
H       -0.44981571       0.81456741       1.38894697
H        0.40840954       1.77813942       0.37138886
O        0.21173577      -1.01932672      -0.54563758
H        0.01179467      -0.00640387       0.04989503
H        1.14528374      -1.39204090      -0.46842880
H       -0.55116198      -1.69206692      -0.48405461
7
Properties=species:S:1:pos:R:3 ipi_comment="Step:         820  Bead:       0 positions{ase}  cell{ase}" pbc="F F F"
O       -0.25994587       1.04751251       0.44804974
H       -0.40641323       0.95371727       1.40194859
H        0.30065917       1.88716328       0.47225401
O        0.23121539      -1.02815366      -0.50847329
H        0.18355122       0.13295190      -0.13103921
H        0.97433927      -1.65755911      -0.39268496
H       -0.59612569      -1.62353715      -0.39143434
7
Properties=species:S:1:pos:R:3 ipi_comment="Step:         840  Bead:       0 positions{ase}  cell{ase}" pbc="F F F"
O       -0.27679311       1.10299316       0.43941473
H       -0.51695923       0.89934067       1.36512188
H        0.23202603       1.92840891       0.24578376
O        0.26432641      -1.08178861      -0.49844688
H        0.15331138       0.02366758       0.01295832
H        0.98788757      -1.69985389      -0.31963170
H       -0.65839403      -1.48812214      -0.36727241
7
Properties=species:S:1:pos:R:3 ipi_comment="Step:         860  Bead:       0 positions{ase}  cell{ase}" pbc="F F F"
O       -0.30253543       1.11950061       0.43111770
H       -0.53488222       1.27844488       1.39456296
H        0.20322437       1.95757490       0.27746550
O        0.27528928      -1.10580885      -0.49418928
H        0.19504713      -0.09936639      -0.03764610
H        1.07890562      -1.62754386      -0.24181348
H       -0.50984343      -1.72642531      -0.39149523
7
Properties=species:S:1:pos:R:3 ipi_comment="Step:         880  Bead:       0 positions{ase}  cell{ase}" pbc="F F F"
O       -0.32378463       1.14565242       0.43434907
H       -0.67178182       1.34601936       1.35026326
H        0.29412863       1.79622012       0.07325275
O        0.30088436      -1.13072067      -0.47995235
H       -0.08495140      -0.11018282      -0.00458772
H        1.21496815      -1.44935394      -0.24353485
H       -0.38888991      -1.81969965      -0.45157694
7
Properties=species:S:1:pos:R:3 ipi_comment="Step:         900  Bead:       0 positions{ase}  cell{ase}" pbc="F F F"
O       -0.32823472       1.11313589       0.42023008
H       -0.67762418       1.40153627       1.29292955
H        0.30145864       1.79714382       0.11561601
O        0.28721794      -1.10794153      -0.46846873
H       -0.08043054       0.06124860       0.15654665
H        1.25270425      -1.37822138      -0.31697965
H       -0.14508893      -1.96415220      -0.48246746
7
Properties=species:S:1:pos:R:3 ipi_comment="Step:         920  Bead:       0 positions{ase}  cell{ase}" pbc="F F F"
O       -0.32209611       1.09371111       0.40893663
H       -0.60838504       1.17905645       1.32755536
H        0.29077961       1.80059580       0.12060571
O        0.27757212      -1.08176669      -0.44979198
H       -0.03905101      -0.05222286       0.09597275
H        1.27034191      -1.20317772      -0.44382092
H       -0.20699972      -1.91383356      -0.45185580
7
Properties=species:S:1:pos:R:3 ipi_comment="Step:         940  Bead:       0 positions{ase}  cell{ase}" pbc="F F F"
O       -0.31758888       1.06468372       0.41372528
H       -0.45128729       1.09030841       1.36801538
H        0.33297241       1.78839280       0.27933652
O        0.27327341      -1.05318275      -0.44911907
H       -0.12526602       0.03132187      -0.11515538
H        1.23168269      -1.24107687      -0.49931114
H       -0.28472560      -1.85148973      -0.47111423
7
Properties=species:S:1:pos:R:3 ipi_comment="Step:         960  Bead:       0 positions{ase}  cell{ase}" pbc="F F F"
O       -0.32533765       1.06414204       0.45295316
H       -0.45416409       0.85271434       1.39581807
H        0.34073662       1.75168560       0.26197223
O        0.27927430      -1.03085344      -0.49118327
H        0.04390900       0.06595842       0.00600788
H        1.15180777      -1.41903322      -0.50602529
H       -0.35117086      -1.77968249      -0.55098372
7
Properties=species:S:1:pos:R:3 ipi_comment="Step:         980  Bead:       0 positions{ase}  cell{ase}" pbc="F F F"
O       -0.34695046       1.06683252       0.50903096
H       -0.39842044       1.01830997       1.47412710
H        0.32016683       1.78316146       0.44558388
O        0.30680969      -1.04349684      -0.56205816
H        0.06919203      -0.06248116       0.02624786
H        1.13499085      -1.49710261      -0.50005114
H       -0.48881406      -1.61227198      -0.60425860
7
Properties=species:S:1:pos:R:3 ipi_comment="Step:        1000  Bead:       0 positions{ase}  cell{ase}" pbc="F F F"
O       -0.34790663       1.07523772       0.57455716
H       -0.49761573       1.06948421       1.52187209
H        0.26048192       1.78749730       0.29487098
O        0.31705166      -1.04467718      -0.62704924
H        0.09505086      -0.06998834       0.03607328
H        1.05644400      -1.59524141      -0.33609758
H       -0.42463033      -1.67680918      -0.68356321
7
Properties=species:S:1:pos:R:3 ipi_comment="Step:        1020  Bead:       0 positions{ase}  cell{ase}" pbc="F F F"
O       -0.31036631       1.04128319       0.59875143
H       -0.43605184       1.14515947       1.53777298
H        0.03946075       1.88943438       0.24056807
O        0.30191071      -1.03295140      -0.65010261
H       -0.06790520      -0.04965350       0.03023569
H        1.04323694      -1.47106614      -0.17602841
H       -0.44453322      -1.64611632      -0.81750111
7
Properties=species:S:1:pos:R:3 ipi_comment="Step:        1040  Bead:       0 positions{ase}  cell{ase}" pbc="F F F"
O       -0.26730532       1.00866485       0.60676265
H       -0.37730027       1.12625787       1.54409186
H       -0.12106318       1.84323865       0.14216686
O        0.27044895      -0.99126274      -0.64451018
H       -0.05436795      -0.09060423      -0.14632100
H        0.90019791      -1.48124341      -0.02917533
H       -0.39736244      -1.67385538      -0.91163269
7
Properties=species:S:1:pos:R:3 ipi_comment="Step:        1060  Bead:       0 positions{ase}  cell{ase}" pbc="F F F"
O       -0.22523384       1.00327088       0.58637565
H       -0.40626534       1.13333600       1.51994775
H       -0.20407587       1.86547853       0.17220277
O        0.25308523      -0.99339973      -0.63520215
H       -0.17932642      -0.06128139       0.01666010
H        0.83867701      -1.51456398       0.01056711
H       -0.49106739      -1.57964397      -0.94440235
7
Properties=species:S:1:pos:R:3 ipi_comment="Step:        1080  Bead:       0 positions{ase}  cell{ase}" pbc="F F F"
O       -0.19356114       1.02138200       0.59313189
H       -0.39499591       1.08484228       1.53574103
H       -0.20633645       1.85236060       0.10856024
O        0.21458150      -1.00060709      -0.61908131
H        0.03359684      -0.05769727      -0.06345138
H        0.77919533      -1.71467621      -0.14742216
H       -0.54509537      -1.49456912      -1.02155782
7
Properties=species:S:1:pos:R:3 ipi_comment="Step:        1100  Bead:       0 positions{ase}  cell{ase}" pbc="F F F"
O       -0.17433452       1.03570448       0.59004926
H       -0.39258616       1.19441443       1.52974015
H       -0.16735408       1.89683467       0.15929585
O        0.20028717      -1.03421032      -0.62835550
H        0.10009522      -0.02391346       0.05043007
H        0.71267691      -1.76993721      -0.16827158
H       -0.66475288      -1.32111359      -0.96319695
7
Properties=species:S:1:pos:R:3 ipi_comment="Step:        1120  Bead:       0 positions{ase}  cell{ase}" pbc="F F F"
O       -0.15959521       1.04437002       0.59558562
H       -0.37956197       1.17120370       1.53792310
H       -0.09921724       1.84601250       0.09112706
O        0.19659269      -1.02256333      -0.63030745
H       -0.00017411      -0.13610866       0.04301344
H        0.56502673      -1.83981651      -0.20784767
H       -0.67329837      -1.38740704      -0.91311011
7
Properties=species:S:1:pos:R:3 ipi_comment="Step:        1140  Bead:       0 positions{ase}  cell{ase}" pbc="F F F"
O       -0.12762028       1.02939633       0.59988720
H       -0.46484058       1.29342121       1.49883891
H       -0.15350329       1.84628641       0.10398903
O        0.16137116      -1.03566033      -0.62762432
H        0.00139333      -0.01209449       0.02462141
H        0.70915131      -1.62822891      -0.13425367
H       -0.62789566      -1.39996167      -1.05295126
7
Properties=species:S:1:pos:R:3 ipi_comment="Step:        1160  Bead:       0 positions{ase}  cell{ase}" pbc="F F F"
O       -0.09512727       1.03187149       0.61207054
H       -0.57777518       1.07247100       1.49247908
H       -0.21078743       1.82261559       0.07804922
O        0.14265815      -1.00653344      -0.63481010
H       -0.14998339      -0.09064308      -0.00685819
H        0.73489869      -1.60235420      -0.22121998
H       -0.55076398      -1.60425516      -0.98152725
7
Properties=species:S:1:pos:R:3 ipi_comment="Step:        1180  Bead:       0 positions{ase}  cell{ase}" pbc="F F F"
O       -0.05602406       1.01649612       0.63309539
H       -0.71411006       0.98617388       1.40133602
H       -0.35146116       1.79666075       0.08354659
O        0.11537685      -1.00711295      -0.65349845
H       -0.10364283       0.09208791       0.00404308
H        0.85017839      -1.44157383      -0.27788867
H       -0.62301340      -1.58227837      -0.88719919
7
Properties=species:S:1:pos:R:3 ipi_comment="Step:        1200  Bead:       0 positions{ase}  cell{ase}" pbc="F F F"
O       -0.04042775       1.03151064       0.66878904
H       -0.79999959       0.82214824       1.31558541