7
Properties=species:S:1:pos:R:3 ipi_comment="Step:           0  Bead:       0 positions{ase}  cell{ase}" pbc="F F F"
O       -0.24525292       0.92704947       0.70060630
H        0.50572486       1.32109162       1.06381283
H       -1.11256270       1.27455707       0.89327293
O        0.24664311      -0.93881000      -0.68037431
H       -0.04364253       0.07101824       0.05101683
H        1.06001929      -1.02699918      -1.19234993
H       -0.43160411      -1.45300416      -1.13687519
7
Properties=species:S:1:pos:R:3 ipi_comment="Step:          20  Bead:       0 positions{ase}  cell{ase}" pbc="F F F"
O       -0.25584914       0.94887033       0.71589969
H        0.47797428       1.34781114       1.16924983
H       -1.06353368       1.18792318       1.12548739
O        0.25919054      -0.94643164      -0.71103098
H       -0.10695581       0.01652189      -0.08260670
H        1.05428475      -1.04865180      -1.23899120
H       -0.41480433      -1.54231108      -1.05041550
7
Properties=species:S:1:pos:R:3 ipi_comment="Step:          40  Bead:       0 positions{ase}  cell{ase}" pbc="F F F"
O       -0.26684621       0.96741760       0.72383146
H        0.42102127       1.33266023       1.32564342
H       -1.09355675       1.00994719       1.22039490
O        0.26042804      -0.94527691      -0.74465063
H        0.09006681      -0.10018451      -0.03062166
H        1.07689951      -0.94421146      -1.26311928
H       -0.39256146      -1.64962897      -0.92185488
7
Properties=species:S:1:pos:R:3 ipi_comment="Step:          60  Bead:       0 positions{ase}  cell{ase}" pbc="F F F"
O       -0.28712648       0.96960581       0.71882683
H        0.37333507       1.29924042       1.44090791
H       -1.15982627       0.73623679       1.14354497
O        0.28917125      -0.93024688      -0.75064566
H       -0.00502918       0.12886545       0.13465988
H        1.00554298      -1.01802091      -1.38150616
H       -0.24647727      -1.77102742      -0.83257727
7
Properties=species:S:1:pos:R:3 ipi_comment="Step:          80  Bead:       0 positions{ase}  cell{ase}" pbc="F F F"
O       -0.31289872       0.96288352       0.71343002
H        0.33409603       1.19843088       1.50184399
H       -1.19311686       0.68597811       1.13515446
O        0.30718209      -0.91291883      -0.74363303
H        0.10028106       0.08529031      -0.06764498
H        0.99352382      -0.95297836      -1.44004826
H       -0.14404967      -1.80976152      -0.64992233
7
Properties=species:S:1:pos:R:3 ipi_comment="Step:         100  Bead:       0 positions{ase}  cell{ase}" pbc="F F F"
O       -0.32680400       0.94161967       0.68867587
H        0.36065693       1.01620098       1.47792245
H       -1.22254486       0.74942939       1.12933834
O        0.31819204      -0.88493090      -0.73026341
H        0.03329752      -0.03600807      -0.02870695
H        1.03065620      -0.82952243      -1.42232039
H       -0.06537670      -1.79986526      -0.49615496
7
Properties=species:S:1:pos:R:3 ipi_comment="Step:         120  Bead:       0 positions{ase}  cell{ase}" pbc="F F F"
O       -0.34159431       0.93907920       0.68926336
H        0.38099511       0.94794284       1.43238357
H       -1.28085235       0.98492606       1.06783229
O        0.32659646      -0.89623686      -0.71639030
H       -0.14203677       0.12705079       0.02341394
H        1.07048646      -0.83673718      -1.39930641
H        0.20945367      -1.90317697      -0.69376392
7
Properties=species:S:1:pos:R:3 ipi_comment="Step:         140  Bead:       0 positions{ase}  cell{ase}" pbc="F F F"
O       -0.34465835       0.95845489       0.69177653
H        0.23548478       0.98361928       1.49539818
H       -1.28801702       1.22157248       0.96189619
O        0.34300965      -0.93759673      -0.72298176
H       -0.14765795      -0.10104152       0.02011177
H        1.01665579      -0.53245651      -1.32065359
H        0.20970253      -1.90275473      -0.66146224
7
Properties=species:S:1:pos:R:3 ipi_comment="Step:         160  Bead:       0 positions{ase}  cell{ase}" pbc="F F F"
O       -0.35119238       0.96388903       0.67812690
H        0.03307744       1.02063619       1.55254448
H       -1.26462544       1.35424784       0.76091011
O        0.34333274      -0.94339949      -0.69380276
H       -0.04039158      -0.21696702       0.05442417
H        0.98263587      -0.58555702      -1.32885951
H        0.41405203      -1.89757029      -0.79021142
7
Properties=species:S:1:pos:R:3 ipi_comment="Step:         180  Bead:       0 positions{ase}  cell{ase}" pbc="F F F"
O       -0.33815969       0.94444928       0.67100284
H       -0.18640454       1.01710423       1.59272344
H       -1.17520326       1.38641232       0.43852015
O        0.35309403      -0.93995022      -0.68947379
H       -0.16156441      -0.06885107       0.09939702
H        0.89642363      -0.52653138      -1.32299680
H        0.38971029      -1.87954315      -0.51447235
7
Properties=species:S:1:pos:R:3 ipi_comment="Step:         200  Bead:       0 positions{ase}  cell{ase}" pbc="F F F"
O       -0.34277578       0.92088582       0.65105446
H       -0.43213693       0.90641933       1.57735354
H       -1.04934677       1.42462466       0.22863091
O        0.33675988      -0.89922779      -0.66200846
H        0.08837427      -0.02538468       0.05053568
H        1.00387375      -0.85153131      -1.32430626
H        0.48472025      -1.79788466      -0.35835164
7
Properties=species:S:1:pos:R:3 ipi_comment="Step:         220  Bead:       0 positions{ase}  cell{ase}" pbc="F F F"
O       -0.33681020       0.93053825       0.65848699
H       -0.72895518       0.80910601       1.50598006
H       -0.98383584       1.40271288       0.14086567
O        0.34656424      -0.91397968      -0.67273599
H        0.18106837       0.02186899       0.03600678
H        1.02608278      -0.80932525      -1.34345023
H        0.35082333      -1.68718049      -0.11324171
7
Properties=species:S:1:pos:R:3 ipi_comment="Step:         240  Bead:       0 positions{ase}  cell{ase}" pbc="F F F"
O       -0.33902644       0.97109867       0.66765322
H       -0.87332797       0.66782780       1.40385561
H       -0.90399196       1.42416831       0.04560335
O        0.34585781      -0.93694437      -0.67487660
H       -0.01122041       0.04757896       0.06844878
H        1.16782211      -0.93460148      -1.21659488
H        0.51229046      -1.74707115      -0.18666311
7
Properties=species:S:1:pos:R:3 ipi_comment="Step:         260  Bead:       0 positions{ase}  cell{ase}" pbc="F F F"
O       -0.35274677       0.99867676       0.67002707
H       -0.96800259       0.68221528       1.37036835
H       -0.87831048       1.64098357       0.20532878
O        0.36406637      -0.98912105      -0.68715017
H        0.07592137       0.08420084       0.05690667
H        1.20817883      -0.74298918      -1.15897349
H        0.38254787      -1.81607868      -0.20185182
7
Properties=species:S:1:pos:R:3 ipi_comment="Step:         280  Bead:       0 positions{ase}  cell{ase}" pbc="F F F"
O       -0.37803330       1.00468537       0.67230373
H       -0.93241583       0.73662205       1.47391764
H       -0.75264674       1.80156552       0.26827022
O        0.37934254      -0.98183212      -0.68526114
H       -0.04776878      -0.10069204      -0.11215183
H        1.26547767      -0.90859439      -1.13082956
H        0.44657336      -1.89162829      -0.29354595
7
Properties=species:S:1:pos:R:3 ipi_comment="Step:         300  Bead:       0 positions{ase}  cell{ase}" pbc="F F F"
O       -0.39935908       0.95794078       0.66209057
H       -0.85229494       0.94693300       1.57157413
H       -0.63449393       1.82662600       0.24895001
O        0.39419815      -0.96734371      -0.69324252
H       -0.00078606      -0.03761287      -0.05588885
H        1.27286619      -0.75034331      -1.07348352
H        0.29662308      -1.83635915      -0.19670719
7
Properties=species:S:1:pos:R:3 ipi_comment="Step:         320  Bead:       0 positions{ase}  cell{ase}" pbc="F F F"
O       -0.41533235       0.91841347       0.65258319
H       -0.75829324       0.93545626       1.59019018
H       -0.40996854       1.80431574       0.18090199
O        0.37982723      -0.91314186      -0.69369835
H        0.00496759      -0.09061391       0.04415239
H        1.33025961      -0.88812793      -0.90860384
H        0.39657260      -1.84470118      -0.25405975
7
Properties=species:S:1:pos:R:3 ipi_comment="Step:         340  Bead:       0 positions{ase}  cell{ase}" pbc="F F F"
O       -0.43166065       0.87700343       0.64570339
H       -0.70923988       1.00843455       1.55746209
H       -0.18387163       1.80966493       0.31351503
O        0.39576116      -0.89091905      -0.67689065
H        0.03231041      -0.07441794       0.05790058
H        1.27452304      -0.68685659      -1.00304455
H        0.15607561      -1.83595570      -0.43082814
7
Properties=species:S:1:pos:R:3 ipi_comment="Step:         360  Bead:       0 positions{ase}  cell{ase}" pbc="F F F"
O       -0.45933313       0.90008585       0.65775586
H       -0.53168900       0.94691494       1.59768375
H        0.07810381       1.68044629       0.34558130
O        0.40050519      -0.89019389      -0.67300466
H       -0.00346692      -0.10121094       0.17498718
H        1.25457458      -0.85317190      -1.13838296
H        0.13619594      -1.82998356      -0.73783979
7
Properties=species:S:1:pos:R:3 ipi_comment="Step:         380  Bead:       0 positions{ase}  cell{ase}" pbc="F F F"
O       -0.46120921       0.95304915       0.70010884
H       -0.31715564       0.86197995       1.62791929
H        0.13702533       1.68772797       0.43475465
O        0.40256410      -0.95045341      -0.71217267
H       -0.09780584       0.09121882       0.16901510
H        1.24931460      -0.89342746      -1.17941136
H       -0.04056199      -1.78869873      -0.86080011
7
Properties=species:S:1:pos:R:3 ipi_comment="Step:         400  Bead:       0 positions{ase}  cell{ase}" pbc="F F F"
O       -0.45161042       0.99679389       0.73901821
H       -0.21103715       0.67154425       1.59307765
H       -0.05599233       1.83638106       0.54156807
O        0.40788115      -0.98638519      -0.73341854
H       -0.12108587       0.14217875      -0.06432540
H        1.24174539      -1.11436335      -1.19962311
H       -0.15955800      -1.70094773      -0.95957513
7
Properties=species:S:1:pos:R:3 ipi_comment="Step:         420  Bead:       0 positions{ase}  cell{ase}" pbc="F F F"
O       -0.43889525       0.96051347       0.72318092
H       -0.13942349       0.58414131       1.56590939
H       -0.21292579       1.86773768       0.75372640
O        0.39920910      -0.96913073      -0.72469756
H        0.04170441       0.39720647      -0.03230192
H        1.21119317      -1.21098555      -1.17377859
H       -0.27064889      -1.50132646      -1.08948299
7
Properties=species:S:1:pos:R:3 ipi_comment="Step:         440  Bead:       0 positions{ase}  cell{ase}" pbc="F F F"
O       -0.39510200       0.92252280       0.70507348
H       -0.25175235       0.49591527       1.57108202
H       -0.22731113       1.84755651       0.72328060
O        0.37185800      -0.92911001      -0.70134192
H        0.00963628       0.26644318      -0.02251494
H        1.17389418      -1.18316791      -1.15388910
H       -0.33553778      -1.32219461      -1.17718590
7
Properties=species:S:1:pos:R:3 ipi_comment="Step:         460  Bead:       0 positions{ase}  cell{ase}" pbc="F F F"
O       -0.36228175       0.89338329       0.69766493
H       -0.36923935       0.72363934       1.66815841
H       -0.06243499       1.79944252       0.57609761
O        0.32845137      -0.91034265      -0.68415068
H        0.10391069      -0.04577225      -0.09695622
H        1.20314242      -0.98484670      -1.04700585
H       -0.33842230      -1.22328333      -1.31479240
7
Properties=species:S:1:pos:R:3 ipi_comment="Step:         480  Bead:       0 positions{ase}  cell{ase}" pbc="F F F"
O       -0.32339379       0.87877150       0.71911686
H       -0.45460332       0.89007679       1.69850120
H        0.06103486       1.74996946       0.38086525
O        0.29846747      -0.92544992      -0.69795652
H       -0.08468813       0.02298247       0.12147226
H        1.17997778      -0.81910856      -1.05676311
H       -0.30609011      -1.10303891      -1.47993293
7
Properties=species:S:1:pos:R:3 ipi_comment="Step:         500  Bead:       0 positions{ase}  cell{ase}" pbc="F F F"
O       -0.28868586       0.90336192       0.77883028
H       -0.41838238       0.95014736       1.74757527
H        0.07975304       1.79811528       0.39886658
O        0.26331657      -0.95670164      -0.75020939
H       -0.08832414      -0.17637004       0.03301462
H        1.18778254      -0.76970228      -1.05497534
H       -0.35816716      -0.95558082      -1.57875255
7
Properties=species:S:1:pos:R:3 ipi_comment="Step:         520  Bead:       0 positions{ase}  cell{ase}" pbc="F F F"
O       -0.26453054       0.90605873       0.82485018
H       -0.37992060       0.93136512       1.79642260
H        0.04870800       1.85826956       0.61566239
O        0.23387938      -0.96763937      -0.79950493
H        0.08131652      -0.14691271      -0.06630270
H        1.18815561      -0.83607450      -1.17095636
H       -0.45176371      -0.82923780      -1.57710630
7
Properties=species:S:1:pos:R:3 ipi_comment="Step:         540  Bead:       0 positions{ase}  cell{ase}" pbc="F F F"
O       -0.24114982       0.90840986       0.85038608
H       -0.32763257       0.69376222       1.81186425
H       -0.00835712       1.85235868       0.70265998
O        0.22097429      -0.93178922      -0.82775809
H        0.12808529      -0.14128604      -0.00204455
H        1.07511581      -1.17722703      -1.36585420
H       -0.54698502      -0.85652996      -1.50577735
7
Properties=species:S:1:pos:R:3 ipi_comment="Step:         560  Bead:       0 positions{ase}  cell{ase}" pbc="F F F"
O       -0.22433942       0.87168695       0.83932448
H       -0.19574151       0.63739003       1.81223414
H       -0.07349348       1.79451894       0.81159347
O        0.19652674      -0.88056732      -0.82777310
H        0.25950760      -0.00602962      -0.21650243
H        1.06657675      -1.32081133      -1.21798250
H       -0.61540584      -0.96411836      -1.37268647
7
Properties=species:S:1:pos:R:3 ipi_comment="Step:         580  Bead:       0 positions{ase}  cell{ase}" pbc="F F F"
O       -0.19581066       0.84612628       0.80809571
H        0.01616226       0.49726209       1.69016936
H       -0.18838951       1.77898718       0.81958480
O        0.17478892      -0.84408009      -0.81082954
H       -0.01927452       0.09974674       0.04020380
H        1.03674527      -1.31653422      -1.10503296
H       -0.51158600      -1.09193868      -1.40153341
7
Properties=species:S:1:pos:R:3 ipi_comment="Step:         600  Bead:       0 positions{ase}  cell{ase}" pbc="F F F"
O       -0.18768308       0.84582744       0.82631747
H        0.18806520       0.55768881       1.63939437
H       -0.19134689       1.80085118       0.66147873
O        0.14359612      -0.84991480      -0.81189944
H       -0.07175104       0.09275005      -0.20058882
H        1.11452931      -1.13948423      -0.81896719
H       -0.33974732      -1.24693092      -1.51016022
7
Properties=species:S:1:pos:R:3 ipi_comment="Step:         620  Bead:       0 positions{ase}  cell{ase}" pbc="F F F"
O       -0.19182721       0.87407234       0.83066281
H        0.31658132       0.79015765       1.61262329
H       -0.08875680       1.86879026       0.66494789
O        0.13354460      -0.89743868      -0.81669741
H       -0.19235907      -0.04265531      -0.10221123
H        1.08791661      -1.03179353      -0.74185139
H       -0.19831912      -1.21362785      -1.65516764
7
Properties=species:S:1:pos:R:3 ipi_comment="Step:         640  Bead:       0 positions{ase}  cell{ase}" pbc="F F F"
O       -0.19423653       0.90565642       0.82788335
H        0.32687112       0.77798793       1.60212237
H       -0.13446964       1.80449058       0.34892535
O        0.13643270      -0.94224736      -0.79141708
H       -0.10929325       0.01357096       0.00025810
H        1.05556385      -1.11343690      -0.82287709
H       -0.22120825      -0.90184009      -1.70722208
7
Properties=species:S:1:pos:R:3 ipi_comment="Step:         660  Bead:       0 positions{ase}  cell{ase}" pbc="F F F"
O       -0.21264850       0.89614620       0.78078459
H        0.32877379       0.99845507       1.59584983
H       -0.08767021       1.83506579       0.41644019
O        0.14179278      -0.96590770      -0.74809581
H        0.13969506       0.00773149       0.09294846
H        0.98731090      -1.20516445      -1.03718005
H       -0.24348589      -0.52883143      -1.58689542
7
Properties=species:S:1:pos:R:3 ipi_comment="Step:         680  Bead:       0 positions{ase}  cell{ase}" pbc="F F F"
O       -0.19527276       0.92191556       0.73000649
H        0.18414802       0.93567337       1.67075379
H       -0.22208765       1.77114791       0.26646925
O        0.16110594      -0.96329996      -0.69959161
H        0.16666103      -0.15211330       0.07616774
H        0.88365881      -1.37594348      -1.11007432
H       -0.47008364      -0.52191001      -1.38606216
7
Properties=species:S:1:pos:R:3 ipi_comment="Step:         700  Bead:       0 positions{ase}  cell{ase}" pbc="F F F"
O       -0.16830714       0.92442219       0.69434751
H       -0.02485610       1.20330990       1.68083132
H       -0.21339048       1.78018408       0.27166264
O        0.14948707      -0.96437768      -0.66654505
H        0.21858680       0.05798291       0.06676107
H        0.91677871      -1.43869762      -1.07677506
H       -0.59840628      -0.96860457      -1.38376113
7
Properties=species:S:1:pos:R:3 ipi_comment="Step:         720  Bead:       0 positions{ase}  cell{ase}" pbc="F F F"
O       -0.13965780       0.99705266       0.67356118
H       -0.11332195       0.98403514       1.69762109
H       -0.20632378       1.80062191       0.18423646
O        0.13312100      -0.99793561      -0.66039334
H        0.01084330      -0.02005295       0.02643301
H        1.04625041      -1.36079511      -0.92901947
H       -0.63369588      -1.38979451      -1.18827127
7
Properties=species:S:1:pos:R:3 ipi_comment="Step:         740  Bead:       0 positions{ase}  cell{ase}" pbc="F F F"
O       -0.13336515       1.03478086       0.63156815
H       -0.19161560       1.04911534       1.63371553
H       -0.21688701       1.96680401       0.41246323
O        0.12678578      -1.03484653      -0.64525382
H       -0.17507534       0.02475133      -0.01628945
H        1.13050466      -1.28743950      -0.80430687
H       -0.44249886      -1.75218866      -1.00836312
7
Properties=species:S:1:pos:R:3 ipi_comment="Step:         760  Bead:       0 positions{ase}  cell{ase}" pbc="F F F"
O       -0.13415707       1.05911358       0.60142572
H       -0.30178985       0.85199627       1.53166340
H       -0.29920452       1.97092076       0.23840811
O        0.12281944      -1.04703497      -0.61643895
H       -0.03773114       0.06372318      -0.09152440
H        1.15943045      -1.21182906      -0.61329140
H       -0.34075378      -1.86652296      -0.82696519
7
Properties=species:S:1:pos:R:3 ipi_comment="Step:         780  Bead:       0 positions{ase}  cell{ase}" pbc="F F F"
O       -0.11755464       1.02964194       0.56535993
H       -0.54863068       0.99241872       1.41997685
H       -0.53451508       1.89449694       0.24893696
O        0.15791625      -1.01724063      -0.60294795
H       -0.21925100       0.08646416      -0.04628418
H        1.11361822      -1.41184087      -0.53076968
H       -0.45184198      -1.75837275      -0.49526180
7
Properties=species:S:1:pos:R:3 ipi_comment="Step:         800  Bead:       0 positions{ase}  cell{ase}" pbc="F F F"
O       -0.12839227       1.05398953       0.55208918
H       -0.55485789       0.91789805       1.36734803
H       -0.58763145       1.68250101      -0.06662731
O        0.15674501      -1.02178623      -0.58944604
H        0.15323542      -0.04743044      -0.01966136
H        1.06629497      -1.42903984      -0.43363574
H       -0.52705634      -1.63506021      -0.25449455
7
Properties=species:S:1:pos:R:3 ipi_comment="Step:         820  Bead:       0 positions{ase}  cell{ase}" pbc="F F F"
O       -0.11889211       1.08117644       0.52615112
H       -0.67953624       1.03418842       1.31035113
H       -0.72544847       1.56186978      -0.09901833
O        0.17586943      -1.04793377      -0.56368488
H        0.08858436       0.10211319       0.07437727
H        0.95071363      -1.60176611      -0.48725940
H       -0.53865882      -1.62403367      -0.20271373
7
Properties=species:S:1:pos:R:3 ipi_comment="Step:         840  Bead:       0 positions{ase}  cell{ase}" pbc="F F F"
O       -0.15229940       1.12692507       0.50151618
H       -0.59660750       1.13208414       1.37610092
H       -0.63331737       1.64156891      -0.15631527
O        0.19749552      -1.09192392      -0.52272957
H        0.08423041      -0.05345878       0.06732929
H        0.99333045      -1.57427923      -0.61359320
H       -0.56498994      -1.70145391      -0.33682216
7
Properties=species:S:1:pos:R:3 ipi_comment="Step:         860  Bead:       0 positions{ase}  cell{ase}" pbc="F F F"
O       -0.17910517       1.13977327       0.47056069
H       -0.49889185       1.30179500       1.41086885
H       -0.66716218       1.78327262      -0.02844865
O        0.20877558      -1.12221586      -0.47780691
H        0.05877362      -0.13148568      -0.02339269
H        1.07280698      -1.34987645      -0.77415921
H       -0.43645597      -1.88237690      -0.46985600
7
Properties=species:S:1:pos:R:3 ipi_comment="Step:         880  Bead:       0 positions{ase}  cell{ase}" pbc="F F F"
O       -0.22217377       1.13471634       0.43813661
H       -0.23789013       1.30876131       1.42904410
H       -0.61813398       1.85954121      -0.03700119
O        0.24269817      -1.13769315      -0.42515852
H       -0.23902496       0.00390560      -0.06354485
H        1.05625297      -1.17633747      -0.97336290
H       -0.28696777      -1.94862246      -0.56112357
7
Properties=species:S:1:pos:R:3 ipi_comment="Step:         900  Bead:       0 positions{ase}  cell{ase}" pbc="F F F"
O       -0.25085962       1.10978888       0.41419965
H       -0.07815967       1.19105576       1.36458307
H       -0.64767246       1.88008747      -0.04388476
O        0.26349838      -1.12797650      -0.38151471
H       -0.05698289       0.07677632       0.04528257
H        0.85956203      -0.98419683      -1.21447367
H       -0.27734987      -1.87504810      -0.67028335
7
Properties=species:S:1:pos:R:3 ipi_comment="Step:         920  Bead:       0 positions{ase}  cell{ase}" pbc="F F F"
O       -0.24489811       1.08053392       0.41847763
H       -0.00241573       1.35716362       1.28164073
H       -0.79121785       1.83785192       0.05818946
O        0.28987864      -1.10656518      -0.38299280
H       -0.16594108      -0.15890298      -0.08368729
H        0.72307228      -0.91930551      -1.31901341
H       -0.47742972      -1.70363814      -0.50034548
7
Properties=species:S:1:pos:R:3 ipi_comment="Step:         940  Bead:       0 positions{ase}  cell{ase}" pbc="F F F"
O       -0.23074408       1.07329925       0.43558065
H        0.12767221       1.34972122       1.26251472
H       -0.97938768       1.65680063       0.11985432
O        0.26561627      -1.09155901      -0.40926533
H        0.04988732      -0.00404284       0.10276390
H        0.71489047      -0.98600185      -1.34840586
H       -0.46655467      -1.72665771      -0.55440433
7
Properties=species:S:1:pos:R:3 ipi_comment="Step:         960  Bead:       0 positions{ase}  cell{ase}" pbc="F F F"
O       -0.20626991       1.06989839       0.48074305
H        0.12355548       1.42978130       1.32175244
H       -1.10762440       1.39893924       0.27819288
O        0.24877220      -1.07302115      -0.46358490
H       -0.03688026       0.03858923      -0.01986712
H        0.82462379      -1.09667037      -1.28963383
H       -0.47827204      -1.72107460      -0.56277892
7
Properties=species:S:1:pos:R:3 ipi_comment="Step:         980  Bead:       0 positions{ase}  cell{ase}" pbc="F F F"
O       -0.21103152       1.09355688       0.51949316
H        0.11650817       1.31478973       1.42236489
H       -1.16731536       1.30667124       0.56372097
O        0.24556605      -1.06725330      -0.53264019
H        0.06499586      -0.12968884       0.02526975
H        0.87321382      -1.13572855      -1.25863699
H       -0.43553548      -1.77353457      -0.54404850
7
Properties=species:S:1:pos:R:3 ipi_comment="Step:        1000  Bead:       0 positions{ase}  cell{ase}" pbc="F F F"
O       -0.22507014       1.11612432       0.55908966
H        0.28829701       1.17203782       1.41025547
H       -1.18886659       1.23795345       0.70322038
O        0.24893035      -1.08669666      -0.57828399
H       -0.03891261       0.14971941       0.07947761
H        0.85906756      -1.12813321      -1.27908194
H       -0.29829515      -1.89865384      -0.60921853
7
Properties=species:S:1:pos:R:3 ipi_comment="Step:        1020  Bead:       0 positions{ase}  cell{ase}" pbc="F F F"
O       -0.22656850       1.11574643       0.58111593
H        0.40507357       1.11238595       1.35087823
H       -1.11346810       1.33214905       0.90780788
O        0.24250332      -1.08956596      -0.59879178
H       -0.13312178       0.16943603      -0.01809225
H        0.80896789      -1.07097983      -1.32256172
H       -0.22036948      -1.95852801      -0.63748061
7
Properties=species:S:1:pos:R:3 ipi_comment="Step:        1040  Bead:       0 positions{ase}  cell{ase}" pbc="F F F"
O       -0.21466506       1.09623718       0.58808660
H        0.46172592       1.08742820       1.29114098
H       -1.01615034       1.44892077       0.96510018
O        0.22964506      -1.07230205      -0.60775341
H       -0.15200471      -0.04171997       0.03993045
H        0.77392204      -0.98602191      -1.36874023
H       -0.30525589      -1.88850595      -0.61527916
7
Properties=species:S:1:pos:R:3 ipi_comment="Step:        1060  Bead:       0 positions{ase}  cell{ase}" pbc="F F F"
O       -0.17517761       1.04608023       0.57477807
H        0.46283996       1.23590443       1.26551371
H       -0.99853897       1.42362709       0.84365856
O        0.19738029      -1.03432103      -0.57203045
H       -0.11736589      -0.06539560      -0.07902192
H        0.63840329      -0.94494010      -1.43719670
H       -0.33773991      -1.83583799      -0.63656379
7
Properties=species:S:1:pos:R:3 ipi_comment="Step:        1080  Bead:       0 positions{ase}  cell{ase}" pbc="F F F"
O       -0.13344605       1.00494588       0.57052315
H        0.49792030       1.28433773       1.22667406
H       -1.00973636       1.40720542       0.67294597
O        0.17143212      -1.01833711      -0.56439356
H       -0.01598316       0.01777562       0.06013634
H        0.46609780      -0.84099950      -1.50026125
H       -0.54121443      -1.65577314      -0.55678404
7
Properties=species:S:1:pos:R:3 ipi_comment="Step:        1100  Bead:       0 positions{ase}  cell{ase}" pbc="F F F"
O       -0.10297878       1.01019497       0.58044191
H        0.41912234       1.41173983       1.28960042
H       -0.98882238       1.45505382       0.60796636
O        0.15785946      -1.03169220      -0.57206936
H        0.07730009      -0.13964454       0.07544018
H        0.26641582      -0.84013224      -1.58159173
H       -0.64508338      -1.54581216      -0.52430445
7
Properties=species:S:1:pos:R:3 ipi_comment="Step:        1120  Bead:       0 positions{ase}  cell{ase}" pbc="F F F"
O       -0.08608882       1.03696935       0.61836978
H        0.39593950       1.42194769       1.36767988
H       -0.95657236       1.49036653       0.45617329
O        0.14217135      -1.06467799      -0.60522153
H        0.07198759      -0.02110618       0.00668183
H        0.19195720      -0.76555318      -1.58687872
H       -0.59345523      -1.68586263      -0.45234549
7
Properties=species:S:1:pos:R:3 ipi_comment="Step:        1140  Bead:       0 positions{ase}  cell{ase}" pbc="F F F"
O       -0.06952023       1.05720519       0.62739863
H        0.32262103       1.37853220       1.49184473
H       -0.89123247       1.59492708       0.49154449
O        0.12392817      -1.05943651      -0.63230252
H       -0.03225519      -0.05893332       0.17417128
H        0.11413910      -0.96596611      -1.63873635
H       -0.37683666      -1.91314422      -0.44098924
7
Properties=species:S:1:pos:R:3 ipi_comment="Step:        1160  Bead:       0 positions{ase}  cell{ase}" pbc="F F F"
O       -0.05979249       1.05166680       0.62963093
H        0.28943653       1.02406156       1.59532335
H       -0.86743303       1.58100172       0.55574661
O        0.09345974      -1.03412430      -0.64411887
H       -0.01779328       0.02192140       0.03347542
H        0.11564602      -0.90837171      -1.61940816
H       -0.05422372      -1.99704779      -0.33518427
7
Properties=species:S:1:pos:R:3 ipi_comment="Step:        1180  Bead:       0 positions{ase}  cell{ase}" pbc="F F F"
O       -0.02575906       1.02113898       0.62602366
H        0.15490468       0.69183740       1.59145860
H       -0.89436768       1.48421886       0.64534455
O        0.05758999      -0.97793033      -0.64475004
H       -0.05405883       0.09330803       0.02203370
H        0.10729949      -1.01382571      -1.63170765
H        0.18100107      -1.94134716      -0.32990358
7
Properties=species:S:1:pos:R:3 ipi_comment="Step:        1200  Bead:       0 positions{ase}  cell{ase}" pbc="F F F"
O       -0.00621708       0.99663840       0.66264045
H        0.08787623       0.59883314       1.61041573